  LAMMPS description

      16   atoms

       1   atom types

  0.0000000      8.8979630     xlo xhi
  0.0000000      8.9101230     ylo yhi
  0.0000000      6.3115610     zlo zhi

  Masses

       1   16.000000    

   Atoms

       1       1       1     0.00000000     0.98208400     1.11128800    -0.25200000
       2       2       1     0.00000000    -1.37522300    -1.25149400     2.90359200
       3       3       1     0.00000000     3.20651200     0.97601400    -1.83149400
       4       4       1     0.00000000     0.84930300     3.33875300     1.32393600
       5       5       1     0.00000000     0.98186300    -3.34347200    -0.25187500
       6       6       1     0.00000000    -1.37495200     3.20323800     2.90376100
       7       7       1     0.00000000     3.20631100    -3.47870200    -1.83165700
       8       8       1     0.00000000     0.84904700    -1.11597600     1.32403700
       9       9       1     0.00000000    -3.46656100     1.11095800    -0.25213600
      10      10       1     0.00000000     3.07345100    -1.25121400     2.90350000
      11      11       1     0.00000000    -1.24216700     0.97574200    -1.83166000
      12      12       1     0.00000000    -3.59938900     3.33842500     1.32404000
      13      13       1     0.00000000    -3.46678200    -3.34380200    -0.25201100
      14      14       1     0.00000000     3.07372200     3.20351800     2.90366900
      15      15       1     0.00000000    -1.24236700    -3.47897400    -1.83182200
      16      16       1     0.00000000    -3.59964500    -1.11630400     1.32414100
