  LAMMPS description

      72   atoms

       1   atom types

  0.0000000      6.3243250     xlo xhi
  0.0000000      12.884013     ylo yhi
  0.0000000      22.315764     zlo zhi
  0.0000000     0.20000000E-05 0.40000000E-05 xy xz yz

  Masses

       1   16.000000    

   Atoms

       1       1       1     0.00000000     1.42500000    11.73700000     3.19400000
       2       2       1     0.00000000    -0.00000000    10.18600000     8.47100000
       3       3       1     0.00000000     0.59600000    12.85300000     6.69900000
       4       4       1     0.00000000     1.42500000     7.53900000     1.29500000
       5       5       1     0.00000000     2.10800000    10.18600000     1.03300000
       6       6       1     0.00000000     0.00000000    12.88400000    22.31600000
       7       7       1     0.00000000     1.42500000     5.29500000    14.35200000
       8       8       1     0.00000000     0.00000000     3.74400000    19.62900000
       9       9       1     0.00000000    -0.00000000    10.64100000    13.05700000
      10      10       1     0.00000000     0.82900000     8.16400000    15.77600000
      11      11       1     0.00000000     0.59600000    10.01500000    20.89200000
      12      12       1     0.00000000     0.82900000    11.76800000    18.81200000
      13      13       1     0.00000000     0.59600000     6.41100000    17.85600000
      14      14       1     0.00000000     0.82900000     7.33700000    20.41500000
      15      15       1     0.00000000     0.59500000    10.84200000    16.25300000
      16      16       1     0.00000000     3.53300000    11.73700000    18.07200000
      17      17       1     0.00000000     2.70400000    12.85300000    21.57600000
      18      18       1     0.00000000     0.00000000     6.44200000    11.15800000
      19      19       1     0.00000000     1.42500000     7.99300000     5.88100000
      20      20       1     0.00000000    -0.00000000     4.19800000     1.89900000
      21      21       1     0.00000000     1.42500000     1.09700000    12.45300000
      22      22       1     0.00000000     0.82900000     1.72200000     4.61800000
      23      23       1     0.00000000     0.59600000     3.57300000     9.73400000
      24      24       1     0.00000000     0.82900000     5.32600000     7.65400000
      25      25       1     0.00000000     0.82900000     0.89500000     9.25700000
      26      26       1     0.00000000     0.59500000     4.40000000     5.09600000
      27      27       1     0.00000000     2.10800000    12.88400000    14.87700000
      28      28       1     0.00000000     3.53300000     5.29500000     6.91400000
      29      29       1     0.00000000     2.10800000     3.74400000    12.19100000
      30      30       1     0.00000000     2.10800000    10.64100000     5.61900000
      31      31       1     0.00000000     3.53300000     7.53900000    16.17200000
      32      32       1     0.00000000     2.93800000     8.16400000     8.33700000
      33      33       1     0.00000000     2.70400000    10.01500000    13.45400000
      34      34       1     0.00000000     2.93800000    11.76800000    11.37300000
      35      35       1     0.00000000     2.70400000     6.41100000    10.41800000
      36      36       1     0.00000000     2.93700000     7.33700000    12.97600000
      37      37       1     0.00000000     2.70400000    10.84200000     8.81500000
      38      38       1     0.00000000     5.64100000    11.73700000    10.63300000
      39      39       1     0.00000000     4.21600000    10.18600000    15.91000000
      40      40       1     0.00000000     4.81200000    12.85300000    14.13700000
      41      41       1     0.00000000     2.10800000     6.44200000     3.71900000
      42      42       1     0.00000000     3.53300000     1.09700000     5.01500000
      43      43       1     0.00000000     2.70400000     3.57300000     2.29600000
      44      44       1     0.00000000     2.93800000     5.32600000     0.21500000
      45      45       1     0.00000000     2.93700000     0.89500000     1.81800000
      46      46       1     0.00000000     4.21600000    12.88400000     7.43900000
      47      47       1     0.00000000     4.21600000     3.74400000     4.75200000
      48      48       1     0.00000000     5.64100000     7.53900000     8.73400000
      49      49       1     0.00000000     5.04600000     8.16400000     0.89900000
      50      50       1     0.00000000     4.81200000    10.01500000     6.01500000
      51      51       1     0.00000000     5.04600000    11.76800000     3.93400000
      52      52       1     0.00000000     4.81200000     6.41100000     2.97900000
      53      53       1     0.00000000     5.04600000     7.33700000     5.53700000
      54      54       1     0.00000000     4.81200000    10.84200000     1.37600000
      55      55       1     0.00000000     1.42500000     1.55100000    17.03900000
      56      56       1     0.00000000     3.53300000     7.99300000    20.75800000
      57      57       1     0.00000000     2.10800000     4.19800000    16.77600000
      58      58       1     0.00000000     2.93800000     1.72200000    19.49500000
      59      59       1     0.00000000     2.70400000     4.40000000    19.97300000
      60      60       1     0.00000000     5.64100000     5.29500000    21.79100000
      61      61       1     0.00000000     4.21600000    10.64100000    20.49600000
      62      62       1     0.00000000     3.53300000     1.55100000     9.60000000
      63      63       1     0.00000000     4.21600000     6.44200000    18.59600000
      64      64       1     0.00000000     5.64100000     7.99300000    13.31900000
      65      65       1     0.00000000     4.21600000     4.19800000     9.33800000
      66      66       1     0.00000000     5.64100000     1.09700000    19.89200000
      67      67       1     0.00000000     5.04600000     1.72200000    12.05700000
      68      68       1     0.00000000     4.81200000     3.57300000    17.17300000
      69      69       1     0.00000000     5.04600000     5.32600000    15.09200000
      70      70       1     0.00000000     5.04600000     0.89500000    16.69500000
      71      71       1     0.00000000     4.81200000     4.40000000    12.53400000
      72      72       1     0.00000000     5.64100000     1.55100000     2.16200000
