  LAMMPS description

     360   atoms

       1   atom types

  0.0000000      22.151230     xlo xhi
  0.0000000      22.983381     ylo yhi
  0.0000000      21.797828     zlo zhi
  0.0000000      0.0000000      0.0000000     xy xz yz
  
  Masses

       1   16.000000    

   Atoms

       1       1       1     0.00000000     1.45718000     1.12832000     0.47396100
       2       2       1     0.00000000     6.05479000     1.34207000     0.09330300
       3       3       1     0.00000000    10.26160000     0.91350300     0.02538900
       4       4       1     0.00000000    14.95190000     1.47390000     0.11756600
       5       5       1     0.00000000    19.06000000     1.26595000     0.02390100
       6       6       1     0.00000000     3.58773000     4.97132000     0.22975200
       7       7       1     0.00000000     8.12590000     5.06914000     0.17055000
       8       8       1     0.00000000    12.54470000     4.71890000     0.10241700
       9       9       1     0.00000000    17.14410000     5.06001000     0.31139600
      10      10       1     0.00000000    21.80910000     4.99407000     0.35988900
      11      11       1     0.00000000     1.56445000     8.66452000     0.62171700
      12      12       1     0.00000000     6.12701000     8.64281000     0.26441400
      13      13       1     0.00000000    10.44830000     9.03893000     0.41478700
      14      14       1     0.00000000    15.00740000     9.02172000     0.23428100
      15      15       1     0.00000000    19.10270000     8.57516000     0.63880500
      16      16       1     0.00000000     3.46393000    12.90090000     0.11558200
      17      17       1     0.00000000     8.24150000    13.02980000     0.50523200
      18      18       1     0.00000000    12.51440000    13.06920000     0.25165700
      19      19       1     0.00000000    17.11700000    12.22010000     0.41662500
      20      20       1     0.00000000    21.54640000    12.77060000     0.39158700
      21      21       1     0.00000000     1.48179000    16.98590000     0.27027800
      22      22       1     0.00000000     5.98020000    16.64630000     0.39126500
      23      23       1     0.00000000    10.25690000    16.61710000     0.32522000
      24      24       1     0.00000000    15.00210000    16.42620000     0.37395800
      25      25       1     0.00000000    19.00890000    16.38600000     0.01221700
      26      26       1     0.00000000     3.83698000    20.40800000     0.12293400
      27      27       1     0.00000000     8.11172000    20.33600000     0.01585400
      28      28       1     0.00000000    12.59840000    20.22870000     0.16648000
      29      29       1     0.00000000    17.08990000    20.30840000     0.14602300
      30      30       1     0.00000000    21.47050000    20.15360000     0.36785000
      31      31       1     0.00000000     1.53969000     1.25119000     3.23955000
      32      32       1     0.00000000     6.10840000     1.42673000     2.72344000
      33      33       1     0.00000000    10.39350000     1.21818000     3.24903000
      34      34       1     0.00000000    14.92660000     1.23923000     3.01893000
      35      35       1     0.00000000    19.02710000     1.23062000     3.10882000
      36      36       1     0.00000000     3.75447000     4.80553000     2.83786000
      37      37       1     0.00000000     8.19487000     4.96085000     3.10765000
      38      38       1     0.00000000    12.65340000     4.87891000     3.07951000
      39      39       1     0.00000000    17.11020000     4.84711000     3.09571000
      40      40       1     0.00000000    21.48720000     4.80265000     3.05089000
      41      41       1     0.00000000     1.34751000     8.77104000     3.10917000
      42      42       1     0.00000000     6.05245000     8.91303000     2.73132000
      43      43       1     0.00000000    10.69690000     8.86496000     2.98403000
      44      44       1     0.00000000    15.13300000     8.96928000     3.28107000
      45      45       1     0.00000000    19.04450000     8.99095000     3.07968000
      46      46       1     0.00000000     3.77471000    12.49100000     2.79055000
      47      47       1     0.00000000     8.19427000    12.79290000     3.13430000
      48      48       1     0.00000000    12.56500000    12.79440000     2.99261000
      49      49       1     0.00000000    17.14570000    12.58600000     3.04814000
      50      50       1     0.00000000    21.37360000    12.81880000     2.98265000
      51      51       1     0.00000000     1.63393000    16.48960000     3.10954000
      52      52       1     0.00000000     6.06565000    16.67420000     3.02607000
      53      53       1     0.00000000    10.28490000    16.49140000     2.97859000
      54      54       1     0.00000000    14.83090000    16.52210000     3.01840000
      55      55       1     0.00000000    18.93520000    16.60420000     2.81131000
      56      56       1     0.00000000     3.74641000    20.42590000     2.98869000
      57      57       1     0.00000000     8.11946000    20.60990000     2.77813000
      58      58       1     0.00000000    12.73940000    20.32840000     2.84562000
      59      59       1     0.00000000    17.01450000    20.33590000     2.73371000
      60      60       1     0.00000000    21.57910000    20.36090000     3.16311000
      61      61       1     0.00000000     4.11479000    -0.00672600     3.96284000
      62      62       1     0.00000000     8.17717000    22.93890000     3.94489000
      63      63       1     0.00000000    12.58520000    -0.00576500     3.85902000
      64      64       1     0.00000000    16.84700000    22.86660000     3.68258000
      65      65       1     0.00000000    21.63990000    22.91620000     3.72973000
      66      66       1     0.00000000     3.62741000     7.48777000     3.74792000
      67      67       1     0.00000000     8.23344000     7.57458000     3.88213000
      68      68       1     0.00000000    12.74850000     7.63523000     3.72516000
      69      69       1     0.00000000    17.02330000     7.25002000     4.41992000
      70      70       1     0.00000000    21.24490000     7.47898000     4.18116000
      71      71       1     0.00000000     3.96469000    15.09540000     3.91332000
      72      72       1     0.00000000     8.20954000    15.29010000     4.07099000
      73      73       1     0.00000000    12.48010000    15.16990000     3.96097000
      74      74       1     0.00000000    16.91950000    15.41430000     3.82349000
      75      75       1     0.00000000    21.32170000    15.40640000     3.69597000
      76      76       1     0.00000000     1.34855000     3.78080000     3.87810000
      77      77       1     0.00000000     6.00406000     3.56017000     3.87913000
      78      78       1     0.00000000    10.47250000     3.58754000     3.98810000
      79      79       1     0.00000000    14.94520000     3.65843000     4.21708000
      80      80       1     0.00000000    19.30890000     3.59576000     3.97871000
      81      81       1     0.00000000     1.17176000    11.26100000     3.68467000
      82      82       1     0.00000000     5.93632000    11.39340000     3.93968000
      83      83       1     0.00000000    10.51290000    11.46360000     3.85185000
      84      84       1     0.00000000    14.89030000    11.46010000     3.94219000
      85      85       1     0.00000000    19.14830000    11.44230000     3.92693000
      86      86       1     0.00000000     1.53985000    18.91950000     3.95545000
      87      87       1     0.00000000     5.97611000    19.13750000     3.67972000
      88      88       1     0.00000000    10.57090000    19.36990000     3.72856000
      89      89       1     0.00000000    14.97410000    19.10800000     3.96816000
      90      90       1     0.00000000    19.28510000    18.98160000     3.86356000
      91      91       1     0.00000000     3.76035000    22.82430000     6.66189000
      92      92       1     0.00000000     8.28120000    22.78980000     6.82801000
      93      93       1     0.00000000    12.58550000    22.86920000     6.51950000
      94      94       1     0.00000000    17.13250000    -0.00884400     6.72990000
      95      95       1     0.00000000    21.51300000     0.01978800     6.73138000
      96      96       1     0.00000000     1.26349000     3.78036000     6.45832000
      97      97       1     0.00000000     5.95097000     3.57833000     6.59014000
      98      98       1     0.00000000    10.58360000     3.82727000     6.76104000
      99      99       1     0.00000000    15.01550000     3.82034000     6.87005000
     100     100       1     0.00000000    19.23700000     3.79462000     6.66385000
     101     101       1     0.00000000     3.78819000     7.73365000     6.44087000
     102     102       1     0.00000000     8.20285000     7.70670000     6.43592000
     103     103       1     0.00000000    12.73910000     7.68603000     6.36974000
     104     104       1     0.00000000    16.89670000     7.65187000     7.00042000
     105     105       1     0.00000000    21.18220000     7.53182000     6.70954000
     106     106       1     0.00000000     1.47448000    11.45260000     6.43739000
     107     107       1     0.00000000     5.75850000    11.53270000     6.47527000
     108     108       1     0.00000000    10.31640000    11.47150000     6.41427000
     109     109       1     0.00000000    14.70390000    11.27480000     6.51365000
     110     110       1     0.00000000    19.28580000    11.09240000     6.62116000
     111     111       1     0.00000000     3.63992000    15.22070000     6.74715000
     112     112       1     0.00000000     8.36763000    15.20400000     6.71448000
     113     113       1     0.00000000    12.52200000    15.00430000     6.74751000
     114     114       1     0.00000000    17.20660000    15.41010000     6.56201000
     115     115       1     0.00000000    21.37020000    15.14570000     6.31498000
     116     116       1     0.00000000     1.40255000    19.04420000     6.56344000
     117     117       1     0.00000000     5.66134000    19.27980000     6.50888000
     118     118       1     0.00000000    10.32390000    19.13190000     6.32342000
     119     119       1     0.00000000    14.80330000    19.06590000     6.56328000
     120     120       1     0.00000000    19.53540000    19.13210000     6.53540000
     121     121       1     0.00000000     3.50524000     2.79984000     7.52410000
     122     122       1     0.00000000     8.22391000     2.37820000     7.74123000
     123     123       1     0.00000000    12.50630000     2.33717000     7.40962000
     124     124       1     0.00000000    17.06180000     2.48720000     7.67694000
     125     125       1     0.00000000    21.33260000     2.58355000     7.60066000
     126     126       1     0.00000000     1.40327000     6.60217000     7.56143000
     127     127       1     0.00000000     6.26903000     6.23998000     7.16774000
     128     128       1     0.00000000    10.33070000     6.34689000     7.48277000
     129     129       1     0.00000000    14.77740000     6.36264000     7.51091000
     130     130       1     0.00000000    19.07550000     6.31465000     7.43819000
     131     131       1     0.00000000     3.91408000    10.12080000     7.81703000
     132     132       1     0.00000000     8.13857000    10.38290000     7.45860000
     133     133       1     0.00000000    12.46840000    10.27480000     7.48420000
     134     134       1     0.00000000    17.03640000    10.30660000     7.64636000
     135     135       1     0.00000000    21.60080000    10.20570000     7.49547000
     136     136       1     0.00000000     1.54323000    13.87190000     7.48885000
     137     137       1     0.00000000     5.85593000    14.16130000     7.68957000
     138     138       1     0.00000000    10.37270000    13.80380000     7.87027000
     139     139       1     0.00000000    15.10810000    14.12590000     7.48506000
     140     140       1     0.00000000    19.24150000    13.95290000     7.45041000
     141     141       1     0.00000000     3.52972000    17.96920000     7.37544000
     142     142       1     0.00000000     7.93756000    18.07110000     7.31852000
     143     143       1     0.00000000    12.59370000    17.84400000     7.60873000
     144     144       1     0.00000000    17.23280000    17.93070000     7.43421000
     145     145       1     0.00000000    21.49210000    17.75460000     7.50140000
     146     146       1     0.00000000     1.52442000    21.84640000     7.79526000
     147     147       1     0.00000000     6.14997000    21.96060000     7.38471000
     148     148       1     0.00000000    10.37080000    21.79220000     7.73663000
     149     149       1     0.00000000    14.78390000    21.55910000     7.48374000
     150     150       1     0.00000000    19.30460000    21.74110000     7.67230000
     151     151       1     0.00000000     3.79736000     2.53394000    10.16860000
     152     152       1     0.00000000     8.07036000     2.36268000    10.39720000
     153     153       1     0.00000000    12.33810000     2.48925000    10.45390000
     154     154       1     0.00000000    17.19440000     2.37991000    10.40680000
     155     155       1     0.00000000    21.43760000     2.45773000    10.36470000
     156     156       1     0.00000000     1.52048000     6.54463000    10.31600000
     157     157       1     0.00000000     6.14843000     6.42261000    10.18670000
     158     158       1     0.00000000    10.20550000     6.22139000    10.08190000
     159     159       1     0.00000000    14.72390000     6.09911000    10.34580000
     160     160       1     0.00000000    19.25000000     6.39684000    10.10760000
     161     161       1     0.00000000     3.87744000    10.07640000    10.42930000
     162     162       1     0.00000000     8.10108000    10.29590000     9.98947000
     163     163       1     0.00000000    12.46350000    10.10620000    10.06810000
     164     164       1     0.00000000    16.97480000    10.29490000    10.44100000
     165     165       1     0.00000000    21.45040000    10.01670000    10.26810000
     166     166       1     0.00000000     1.53723000    13.81320000    10.31640000
     167     167       1     0.00000000     5.98792000    13.91050000    10.38400000
     168     168       1     0.00000000    10.19520000    14.06540000    10.38720000
     169     169       1     0.00000000    14.96280000    13.97580000    10.13300000
     170     170       1     0.00000000    19.42210000    14.13720000    10.23140000
     171     171       1     0.00000000     3.49397000    17.99920000     9.97712000
     172     172       1     0.00000000     8.30007000    17.80310000     9.98224000
     173     173       1     0.00000000    12.48760000    17.91190000    10.24760000
     174     174       1     0.00000000    17.10420000    17.93880000    10.38940000
     175     175       1     0.00000000    21.44270000    17.79610000    10.12230000
     176     176       1     0.00000000     1.15597000    21.58980000    10.18480000
     177     177       1     0.00000000     5.96055000    21.96040000    10.33240000
     178     178       1     0.00000000    10.42130000    21.78360000    10.37660000
     179     179       1     0.00000000    14.85330000    22.04570000    10.25490000
     180     180       1     0.00000000    19.25500000    21.82880000    10.44860000
     181     181       1     0.00000000     1.59043000     1.28255000    10.92900000
     182     182       1     0.00000000     5.83414000     1.24496000    11.22700000
     183     183       1     0.00000000    10.37770000     1.22165000    11.12100000
     184     184       1     0.00000000    14.99670000     1.59839000    11.12840000
     185     185       1     0.00000000    19.45180000     1.27339000    11.38390000
     186     186       1     0.00000000     3.68826000     5.10698000    11.14100000
     187     187       1     0.00000000     8.02616000     5.08152000    11.53710000
     188     188       1     0.00000000    12.32060000     4.92854000    11.21270000
     189     189       1     0.00000000    17.25200000     5.01809000    11.17210000
     190     190       1     0.00000000    21.42960000     5.11725000    11.25510000
     191     191       1     0.00000000     1.49205000     9.06855000    11.30300000
     192     192       1     0.00000000     6.13428000     8.84621000    10.87970000
     193     193       1     0.00000000    10.43780000     9.04233000    11.08150000
     194     194       1     0.00000000    14.61920000     8.89850000    10.75080000
     195     195       1     0.00000000    19.24360000     8.97904000    11.06800000
     196     196       1     0.00000000     3.89839000    12.66280000    11.40040000
     197     197       1     0.00000000     7.94880000    12.49990000    11.28000000
     198     198       1     0.00000000    12.92230000    12.65280000    11.04650000
     199     199       1     0.00000000    17.08910000    12.71540000    11.07680000
     200     200       1     0.00000000    21.43950000    12.58830000    11.22200000
     201     201       1     0.00000000     1.43619000    16.45500000    10.87140000
     202     202       1     0.00000000     5.99940000    16.70280000    10.99780000
     203     203       1     0.00000000    10.38960000    16.58320000    11.27350000
     204     204       1     0.00000000    14.83170000    16.55450000    11.21220000
     205     205       1     0.00000000    19.11660000    16.52760000    11.05260000
     206     206       1     0.00000000     3.49907000    20.77840000    10.77800000
     207     207       1     0.00000000     8.14465000    20.41040000    11.09280000
     208     208       1     0.00000000    12.77540000    20.52340000    10.99810000
     209     209       1     0.00000000    17.12270000    20.36180000    11.17190000
     210     210       1     0.00000000    21.30960000    20.32740000    11.18170000
     211     211       1     0.00000000     1.57000000     1.47672000    13.52160000
     212     212       1     0.00000000     5.87193000     1.27100000    14.08950000
     213     213       1     0.00000000    10.25400000     0.92549100    13.91260000
     214     214       1     0.00000000    14.88680000     1.08468000    14.07750000
     215     215       1     0.00000000    19.40760000     1.32003000    13.96320000
     216     216       1     0.00000000     3.71023000     5.04311000    13.94920000
     217     217       1     0.00000000     8.16735000     4.96568000    14.22100000
     218     218       1     0.00000000    12.51150000     5.03029000    13.90640000
     219     219       1     0.00000000    17.06030000     5.04927000    13.84890000
     220     220       1     0.00000000    21.45480000     4.78533000    13.86870000
     221     221       1     0.00000000     1.45163000     8.82661000    13.77260000
     222     222       1     0.00000000     5.83317000     9.36140000    13.55740000
     223     223       1     0.00000000    10.32770000     8.97706000    13.82720000
     224     224       1     0.00000000    14.54470000     8.99699000    13.62750000
     225     225       1     0.00000000    19.27600000     9.19173000    13.74370000
     226     226       1     0.00000000     3.67463000    12.90240000    14.22400000
     227     227       1     0.00000000     8.37806000    12.82270000    13.99340000
     228     228       1     0.00000000    12.68900000    12.56400000    13.65780000
     229     229       1     0.00000000    16.89570000    12.69990000    13.99640000
     230     230       1     0.00000000    21.54890000    12.64010000    13.93720000
     231     231       1     0.00000000     1.24333000    16.64660000    13.71300000
     232     232       1     0.00000000     6.14070000    16.70940000    13.82830000
     233     233       1     0.00000000    10.54380000    16.35980000    13.89960000
     234     234       1     0.00000000    14.87140000    16.46340000    13.74780000
     235     235       1     0.00000000    18.83110000    16.58070000    13.77880000
     236     236       1     0.00000000     3.89171000    20.62180000    13.57910000
     237     237       1     0.00000000     8.21933000    20.33370000    13.89910000
     238     238       1     0.00000000    12.66390000    20.49490000    13.68340000
     239     239       1     0.00000000    16.99680000    20.71190000    13.84160000
     240     240       1     0.00000000    21.57040000    20.48010000    13.91400000
     241     241       1     0.00000000     3.60781000     0.19203000    14.31170000
     242     242       1     0.00000000     7.99916000    22.87450000    14.80440000
     243     243       1     0.00000000    12.63730000    -0.00681400    14.92720000
     244     244       1     0.00000000    17.25400000     0.06319600    14.90730000
     245     245       1     0.00000000    21.60200000     0.16825300    14.84500000
     246     246       1     0.00000000     1.70559000     3.73027000    14.96130000
     247     247       1     0.00000000     6.00661000     3.69176000    15.12020000
     248     248       1     0.00000000    10.27270000     3.91605000    15.07040000
     249     249       1     0.00000000    14.86860000     3.91763000    15.07600000
     250     250       1     0.00000000    19.20830000     3.80543000    14.89110000
     251     251       1     0.00000000     3.81305000     7.63708000    14.75670000
     252     252       1     0.00000000     8.04155000     7.94069000    14.79030000
     253     253       1     0.00000000    12.59240000     7.59086000    14.71730000
     254     254       1     0.00000000    16.87160000     7.55100000    14.51020000
     255     255       1     0.00000000    21.35080000     7.65123000    14.68440000
     256     256       1     0.00000000     1.57113000    11.40750000    14.91260000
     257     257       1     0.00000000     5.98065000    11.88960000    14.72450000
     258     258       1     0.00000000    10.46170000    11.54770000    14.92140000
     259     259       1     0.00000000    14.77300000    11.53890000    14.90890000
     260     260       1     0.00000000    19.31770000    11.69720000    15.04000000
     261     261       1     0.00000000     3.60945000    15.75210000    14.74940000
     262     262       1     0.00000000     8.26039000    15.38760000    14.73990000
     263     263       1     0.00000000    12.79680000    14.92550000    14.78560000
     264     264       1     0.00000000    16.92010000    15.18780000    14.93970000
     265     265       1     0.00000000    21.29310000    15.14390000    14.94010000
     266     266       1     0.00000000     1.65605000    19.40290000    14.94130000
     267     267       1     0.00000000     5.99958000    19.23230000    14.50900000
     268     268       1     0.00000000    10.65450000    19.17160000    14.64520000
     269     269       1     0.00000000    14.88650000    19.32860000    14.80740000
     270     270       1     0.00000000    19.16100000    19.19320000    14.60250000
     271     271       1     0.00000000     3.97292000    22.75280000    17.02580000
     272     272       1     0.00000000     8.32480000    -0.02784200    17.32590000
     273     273       1     0.00000000    12.46460000    22.94010000    17.47140000
     274     274       1     0.00000000    16.94180000     0.17347900    17.76160000
     275     275       1     0.00000000    21.59830000    -0.01378500    17.58810000
     276     276       1     0.00000000     1.45450000     3.76025000    17.67240000
     277     277       1     0.00000000     5.86884000     3.85908000    17.82800000
     278     278       1     0.00000000    10.34600000     3.77815000    17.63120000
     279     279       1     0.00000000    14.77210000     3.88367000    17.73940000
     280     280       1     0.00000000    19.23950000     3.91374000    17.51160000
     281     281       1     0.00000000     3.61028000     7.53998000    17.55100000
     282     282       1     0.00000000     8.49963000     7.44847000    17.62600000
     283     283       1     0.00000000    12.50150000     7.42899000    17.50770000
     284     284       1     0.00000000    16.70010000     7.66546000    17.10860000
     285     285       1     0.00000000    21.29770000     7.55834000    17.42630000
     286     286       1     0.00000000     1.56797000    11.51060000    17.82520000
     287     287       1     0.00000000     6.19093000    11.65970000    17.60130000
     288     288       1     0.00000000    10.36940000    11.48650000    17.66760000
     289     289       1     0.00000000    14.92570000    11.62970000    17.54430000
     290     290       1     0.00000000    19.11830000    11.57400000    17.62840000
     291     291       1     0.00000000     3.60834000    15.55520000    17.67490000
     292     292       1     0.00000000     8.03939000    15.50630000    17.46800000
     293     293       1     0.00000000    12.72320000    15.23950000    17.47470000
     294     294       1     0.00000000    16.77710000    15.52120000    17.56620000
     295     295       1     0.00000000    21.29200000    15.53230000    17.50230000
     296     296       1     0.00000000     1.66860000    19.01950000    17.30800000
     297     297       1     0.00000000     6.02084000    19.02560000    17.35320000
     298     298       1     0.00000000    10.29990000    19.12760000    17.30360000
     299     299       1     0.00000000    14.82150000    19.18690000    17.69440000
     300     300       1     0.00000000    19.37000000    19.23580000    17.53150000
     301     301       1     0.00000000     3.71446000     2.12079000    18.48150000
     302     302       1     0.00000000     8.05235000     2.59290000    18.41170000
     303     303       1     0.00000000    12.37210000     2.42385000    18.33880000
     304     304       1     0.00000000    16.92910000     2.52485000    18.44690000
     305     305       1     0.00000000    21.42630000     2.53458000    18.45850000
     306     306       1     0.00000000     1.34552000     6.35755000    18.33630000
     307     307       1     0.00000000     5.85991000     6.24846000    18.53100000
     308     308       1     0.00000000    10.62590000     6.12190000    18.52570000
     309     309       1     0.00000000    14.68830000     6.38175000    18.52760000
     310     310       1     0.00000000    19.22450000     6.42872000    18.15560000
     311     311       1     0.00000000     3.94551000    10.35450000    18.90430000
     312     312       1     0.00000000     8.18353000    10.10900000    18.67440000
     313     313       1     0.00000000    12.80550000     9.91774000    18.56640000
     314     314       1     0.00000000    16.78530000    10.19740000    18.46920000
     315     315       1     0.00000000    21.33080000    10.11860000    18.63750000
     316     316       1     0.00000000     1.38702000    14.27150000    18.17860000
     317     317       1     0.00000000     5.79100000    14.18030000    18.56900000
     318     318       1     0.00000000    10.40580000    13.95100000    18.41860000
     319     319       1     0.00000000    14.99920000    14.16160000    18.44790000
     320     320       1     0.00000000    19.14620000    14.23970000    18.26190000
     321     321       1     0.00000000     4.00494000    17.81670000    18.47000000
     322     322       1     0.00000000     8.17297000    17.89840000    18.47810000
     323     323       1     0.00000000    12.53060000    17.62870000    18.43740000
     324     324       1     0.00000000    16.92850000    17.83040000    18.67560000
     325     325       1     0.00000000    21.54970000    18.12880000    18.43880000
     326     326       1     0.00000000     1.54274000    21.56190000    18.37830000
     327     327       1     0.00000000     6.00460000    21.64610000    18.12830000
     328     328       1     0.00000000    10.46630000    21.45870000    18.15120000
     329     329       1     0.00000000    14.70130000    21.71440000    18.52370000
     330     330       1     0.00000000    19.45520000    21.64120000    18.43870000
     331     331       1     0.00000000     3.71952000     2.50174000    21.40630000
     332     332       1     0.00000000     8.17286000     2.44140000    21.08940000
     333     333       1     0.00000000    12.28710000     2.31519000    20.98610000
     334     334       1     0.00000000    17.15340000     2.58874000    20.97350000
     335     335       1     0.00000000    21.55340000     2.58377000    21.06710000
     336     336       1     0.00000000     1.54102000     6.33614000    21.20410000
     337     337       1     0.00000000     5.86723000     6.19787000    21.04990000
     338     338       1     0.00000000    10.32380000     6.37325000    21.20840000
     339     339       1     0.00000000    14.84400000     6.24358000    21.20330000
     340     340       1     0.00000000    19.35860000     6.12244000    21.28340000
     341     341       1     0.00000000     3.63904000    10.26140000    21.58870000
     342     342       1     0.00000000     8.21818000    10.45700000    21.61030000
     343     343       1     0.00000000    12.78600000    10.44050000    21.22340000
     344     344       1     0.00000000    17.16490000     9.87298000    21.26730000
     345     345       1     0.00000000    21.26620000    10.13230000    21.50880000
     346     346       1     0.00000000     1.24990000    14.48660000    21.06340000
     347     347       1     0.00000000     6.04700000    13.94720000    21.46610000
     348     348       1     0.00000000    10.14280000    14.26310000    21.45420000
     349     349       1     0.00000000    14.97350000    13.91380000    21.19460000