  LAMMPS description

      12   atoms

       1   atom types

  0.0000000      5.1350000     xlo xhi
  0.0000000      5.1350000     ylo yhi
  0.0000000      9.1670000     zlo zhi

  Masses

       1   16.000000    

   Atoms

       1       1       1     0.00000000     0.00000000     0.00000000     4.58350000
       2       2       1     0.00000000     2.56750000     2.56750000     0.00000000
       3       3       1     0.00000000     2.56750000     2.56750000     4.58350000
       4       4       1     0.00000000     0.00000000     0.00000000     0.00000000
       5       5       1     0.00000000     4.29286000     1.72536000     3.27261900
       6       6       1     0.00000000     0.84214000     1.72536000     7.85611900
       7       7       1     0.00000000     0.84214000     3.40964000     3.27261900
       8       8       1     0.00000000     4.29286000     3.40964000     7.85611900
       9       9       1     0.00000000     1.72536000     0.84214000     5.89438100
      10      10       1     0.00000000     3.40964000     0.84214000     1.31088100
      11      11       1     0.00000000     3.40964000     4.29286000     5.89438100
      12      12       1     0.00000000     1.72536000     4.29286000     1.31088100
