  LAMMPS description

      12   atoms

       1   atom types

  0.0000000      6.6662000     xlo xhi
  0.0000000      6.6662000     ylo yhi
  0.0000000      6.9358000     zlo zhi

  Masses

       1   16.000000    

   Atoms

       1       1       1     0.00000000     0.71990000     1.98650000     2.01140000
       2       2       1     0.00000000     1.34660000     4.05300000     3.74530000
       3       3       1     0.00000000     5.94630000     4.67970000     5.47930000
       4       4       1     0.00000000     5.31960000     2.61320000     0.27740000
       5       5       1     0.00000000     4.05300000     1.34660000     3.19050000
       6       6       1     0.00000000     4.67970000     5.94630000     1.45650000
       7       7       1     0.00000000     2.61320000     5.31960000     6.65840000
       8       8       1     0.00000000     1.98650000     0.71990000     4.92440000
       9       9       1     0.00000000     2.63310000     2.63310000     0.00000000
      10      10       1     0.00000000     0.70000000     5.96620000     1.73400000
      11      11       1     0.00000000     4.03310000     4.03310000     3.46790000
      12      12       1     0.00000000     5.96620000     0.70000000     5.20190000
